
     Program PWSCF v.7.5 starts on  9Apr2026 at  9:20:18 

     This program is part of the open-source Quantum ESPRESSO suite
     for quantum simulation of materials; please cite
         "P. Giannozzi et al., J. Phys.:Condens. Matter 21 395502 (2009);
         "P. Giannozzi et al., J. Phys.:Condens. Matter 29 465901 (2017);
         "P. Giannozzi et al., J. Chem. Phys. 152 154105 (2020);
          URL http://www.quantum-espresso.org", 
     in publications or presentations arising from this work. More details at
     http://www.quantum-espresso.org/quote

     Parallel version (MPI & OpenMP), running on       4 processor cores
     Number of MPI processes:                 1
     Threads/MPI process:                     4

     MPI processes distributed on     1 nodes
     64845 MiB available memory on the printing compute node when the environment starts

     Waiting for input...
     Reading input from standard input

     Current dimensions of program PWSCF are:
     Max number of different atomic species (ntypx) = 10
     Max number of k-points (npk) =  40000
     Max angular momentum in pseudopotentials (lmaxx) =  4

     Atomic positions and unit cell read from directory:
     ./Na.save/


     Subspace diagonalization in iterative solution of the eigenvalue problem:
     a serial algorithm will be used


     G-vector sticks info
     --------------------
     sticks:   dense  smooth     PW     G-vecs:    dense   smooth      PW
     Sum         713     713    219                12113    12113    2093

     Using Slab Decomposition



     bravais-lattice index     =            3
     lattice parameter (alat)  =       7.9910  a.u.
     unit-cell volume          =     255.1370 (a.u.)^3
     number of atoms/cell      =            1
     number of atomic types    =            1
     number of electrons       =         9.00
     number of Kohn-Sham states=           20
     kinetic-energy cutoff     =      50.0000  Ry
     charge density cutoff     =     200.0000  Ry
     Exchange-correlation= PBE
                           (   1   4   3   4   0   0   0)

     celldm(1)=   7.991000  celldm(2)=   7.991000  celldm(3)=   7.991000
     celldm(4)=   0.000000  celldm(5)=   0.000000  celldm(6)=   0.000000

     crystal axes: (cart. coord. in units of alat)
               a(1) = (   0.500000   0.500000   0.500000 )  
               a(2) = (  -0.500000   0.500000   0.500000 )  
               a(3) = (  -0.500000  -0.500000   0.500000 )  

     reciprocal axes: (cart. coord. in units 2 pi/alat)
               b(1) = (  1.000000  0.000000  1.000000 )  
               b(2) = ( -1.000000  1.000000  0.000000 )  
               b(3) = (  0.000000 -1.000000  1.000000 )  


     PseudoPot. # 1 for Na read from file:
     /scratch/gsesti/pseudo/Na_ONCV_PBE-1.2.upf
     MD5 check sum: 425b17ce8ead78efa4860b7b3310c7e3
     Pseudo is Norm-conserving, Zval =  9.0
     Generated using ONCVPSP code by D. R. Hamann
     Using radial grid of  602 points,  4 beta functions with: 
                l(1) =   0
                l(2) =   0
                l(3) =   1
                l(4) =   1

     atomic species   valence    mass     pseudopotential
     Na                9.00    22.98980     Na( 1.00)

     48 Sym. Ops., with inversion, found



   Cartesian axes

     site n.     atom                  positions (alat units)
         1        Na     tau(   1) = (   0.0000000   0.0000000   0.0000000  )

     number of k points=    16  Fermi-Dirac smearing, width (Ry)=  0.0050
                       cart. coord. in units 2pi/alat
        k(    1) = (   0.0000000   0.0000000   0.0000000), wk =   0.0092593
        k(    2) = (   0.0000000  -0.1666667   0.1666667), wk =   0.1111111
        k(    3) = (   0.0000000  -0.3333333   0.3333333), wk =   0.1111111
        k(    4) = (   0.0000000   0.5000000  -0.5000000), wk =   0.0555556
        k(    5) = (  -0.1666667  -0.1666667   0.3333333), wk =   0.2222222
        k(    6) = (  -0.1666667   0.6666667  -0.5000000), wk =   0.4444444
        k(    7) = (  -0.3333333   0.6666667  -0.3333333), wk =   0.0740741
        k(    8) = (   0.0000000   0.0000000   0.3333333), wk =   0.0555556
        k(    9) = (   0.0000000  -0.1666667   0.5000000), wk =   0.2222222
        k(   10) = (   0.0000000   0.6666667  -0.3333333), wk =   0.1111111
        k(   11) = (  -0.1666667   0.8333333  -0.3333333), wk =   0.2222222
        k(   12) = (   0.6666667  -0.6666667   0.3333333), wk =   0.0740741
        k(   13) = (   0.5000000  -0.5000000   0.3333333), wk =   0.1111111
        k(   14) = (   0.0000000   0.0000000   0.6666667), wk =   0.0555556
        k(   15) = (   0.0000000   0.8333333  -0.1666667), wk =   0.1111111
        k(   16) = (   0.0000000   0.0000000  -1.0000000), wk =   0.0092593

     Dense  grid:    12113 G-vectors     FFT dimensions: (  32,  32,  32)

     Estimated max dynamical RAM per process >       6.80 MB

     The potential is recalculated from file :
     ./Na.save/charge-density

     Starting wfcs are random

     Band Structure Calculation
     Davidson diagonalization with overlap

     ethr =  5.00E-06,  avg # of iterations = 13.6

     total cpu time spent up to now is        2.7 secs

     End of band structure calculation

          k = 0.0000 0.0000 0.0000 (  1505 PWs)   bands (ev):

   -51.1721 -23.1119 -23.1119 -23.1119  -1.3974  13.5009  13.5009  13.5009
    14.4676  14.4676  14.9772  14.9772  14.9772  15.3112  15.3112  15.3112
    21.3313  28.9519  28.9519  31.6954

          k = 0.0000-0.1667 0.1667 (  1511 PWs)   bands (ev):

   -51.1718 -23.1202 -23.1147 -23.1119  -0.9172   9.8172  11.8086  12.2899
    12.6449  13.4958  15.4808  15.5442  17.3514  17.6000  17.7889  19.7049
    22.8604  25.5623  26.8359  31.4715

          k = 0.0000-0.3333 0.3333 (  1511 PWs)   bands (ev):

   -51.1709 -23.1367 -23.1203 -23.1118   0.4987   5.9440  10.4518  11.2202
    11.3960  12.4995  16.6359  16.8248  20.8319  20.8439  21.7463  21.9853
    22.8412  25.2778  27.7063  30.8957

          k = 0.0000 0.5000-0.5000 (  1524 PWs)   bands (ev):

   -51.1707 -23.1449 -23.1231 -23.1118   2.5849   3.0385   9.9933  10.8580
    10.9808  12.0791  17.8925  19.1114  19.1824  19.5180  24.0192  26.2585
    26.6735  27.0319  27.2348  27.5832

          k =-0.1667-0.1667 0.3333 (  1531 PWs)   bands (ev):

   -51.1715 -23.1314 -23.1181 -23.1138   0.0307   7.8035   8.4821  10.9871
    13.1094  13.9925  16.2164  16.3225  18.6026  19.1096  21.2064  22.7630
    23.9237  25.1238  26.4154  28.9400

          k =-0.1667 0.6667-0.5000 (  1533 PWs)   bands (ev):

   -51.1708 -23.1407 -23.1247 -23.1144   1.8754   4.6098   7.3373  10.1504
    12.6430  14.9857  15.7616  18.1293  20.2280  21.2115  22.6056  23.4678
    26.0432  26.5998  28.0561  29.0423

          k =-0.3333 0.6667-0.3333 (  1538 PWs)   bands (ev):

   -51.1707 -23.1346 -23.1346 -23.1160   3.8775   3.8775   4.8224   9.7113
    14.4551  14.4551  15.7813  19.8112  19.8112  21.3557  24.3078  24.3078
    25.3087  25.3087  26.1756  28.7666

          k = 0.0000 0.0000 0.3333 (  1513 PWs)   bands (ev):

   -51.1714 -23.1216 -23.1176 -23.1176  -0.4411   9.9626   9.9626  10.0626
    11.8549  14.4251  15.9433  15.9433  16.7912  20.4743  20.4743  21.2203
    21.6011  24.3971  29.8386  32.1942

          k = 0.0000-0.1667 0.5000 (  1512 PWs)   bands (ev):

   -51.1705 -23.1352 -23.1234 -23.1182   0.9628   6.3549   8.7133   9.5269
    12.0315  13.8125  15.0717  17.2758  19.1030  20.7196  22.8117  24.3432
    25.8427  27.3456  28.6374  29.7263

          k = 0.0000 0.6667-0.3333 (  1522 PWs)   bands (ev):

   -51.1703 -23.1426 -23.1263 -23.1179   3.0151   3.5043   8.2960   9.1280
    13.4271  13.5760  14.0215  15.6914  22.8322  23.8123  23.8395  24.8606
    25.8099  26.9420  29.1057  29.7945

          k =-0.1667 0.8333-0.3333 (  1522 PWs)   bands (ev):

   -51.1701 -23.1386 -23.1313 -23.1205   2.7720   5.1814   5.9422  10.4710
    11.3897  13.3556  14.1330  18.6543  19.3156  23.7000  24.4632  26.1916
    27.3504  28.3671  29.5925  29.8124

          k = 0.6667-0.6667 0.3333 (  1520 PWs)   bands (ev):

   -51.1708 -23.1379 -23.1192 -23.1192   1.4217   6.4851   6.4851   7.8733
    16.7131  16.7131  17.3231  17.3231  17.7785  19.5406  22.6358  22.6358
    23.1723  27.8470  27.8471  28.6231

          k = 0.5000-0.5000 0.3333 (  1526 PWs)   bands (ev):

   -51.1706 -23.1363 -23.1267 -23.1197   3.4449   3.9123   6.0471   7.1512
    16.7238  16.9911  18.6439  19.8086  19.8789  20.1595  22.0852  22.1985
    22.7861  23.3299  25.1023  27.8003

          k = 0.0000 0.0000 0.6667 (  1525 PWs)   bands (ev):

   -51.1700 -23.1336 -23.1296 -23.1296   2.3321   7.2697   7.4817   7.4817
     9.1451  13.3913  17.1869  18.2596  18.2596  20.6510  27.3904  27.3904
    28.2890  29.3555  29.5949  29.5949

          k = 0.0000 0.8333-0.1667 (  1532 PWs)   bands (ev):

   -51.1697 -23.1381 -23.1327 -23.1299   4.3117   4.8160   7.0715   7.6197
     9.5916  11.1856  17.2407  18.5989  21.6124  23.6105  24.0762  24.2942
    27.8376  30.1452  30.8701  31.0938

          k = 0.0000 0.0000-1.0000 (  1464 PWs)   bands (ev):

   -51.1682 -23.1359 -23.1359 -23.1359   6.3380   6.3380   6.6638   6.6638
     6.6638   9.3808  21.1834  21.1834  21.1834  22.5071  23.7953  23.7953
    23.7953  27.2776  34.0866  34.0866

     the Fermi energy is     1.8583 ev
     (compare with:     1.8583 eV, computed in scf)

     Writing all to output data dir ./Na.save/ :
     XML data file, pseudopotentials, collected wavefunctions

     init_run     :      0.52s CPU      0.31s WALL (       1 calls)
     electrons    :      8.83s CPU      2.32s WALL (       1 calls)

     Called by init_run:
     wfcinit      :      0.00s CPU      0.00s WALL (       1 calls)
     potinit      :      0.03s CPU      0.01s WALL (       1 calls)
     hinit0       :      0.49s CPU      0.30s WALL (       1 calls)

     Called by electrons:
     c_bands      :      8.83s CPU      2.32s WALL (       1 calls)
     v_of_rho     :      0.02s CPU      0.01s WALL (       1 calls)

     Called by c_bands:
     init_us_2    :      0.02s CPU      0.00s WALL (      16 calls)
     cegterg      :      7.45s CPU      1.89s WALL (      16 calls)

     Called by *egterg:
     cdiaghg      :      0.83s CPU      0.20s WALL (     234 calls)
     h_psi        :      6.82s CPU      1.81s WALL (     250 calls)
     g_psi        :      0.08s CPU      0.02s WALL (     218 calls)

     Called by h_psi:
     h_psi:calbec :      0.08s CPU      0.03s WALL (     250 calls)
     vloc_psi     :      6.63s CPU      1.75s WALL (     250 calls)
                                        0.00s GPU  (     250 calls)
     add_vuspsi   :      0.08s CPU      0.02s WALL (     250 calls)

     General routines
     calbec       :      0.08s CPU      0.02s WALL (     250 calls)
     fft          :      0.48s CPU      0.29s WALL (      10 calls)
     fftw         :      5.16s CPU      1.39s WALL (    6784 calls)
     davcio       :      0.01s CPU      0.00s WALL (      32 calls)

     Parallel routines

     PWSCF        :      9.48s CPU      2.69s WALL


   This run was terminated on:   9:20:21   9Apr2026            

=------------------------------------------------------------------------------=
   JOB DONE.
=------------------------------------------------------------------------------=
