
     Program PWSCF v.7.5 starts on  9Apr2026 at  9:20:12 

     This program is part of the open-source Quantum ESPRESSO suite
     for quantum simulation of materials; please cite
         "P. Giannozzi et al., J. Phys.:Condens. Matter 21 395502 (2009);
         "P. Giannozzi et al., J. Phys.:Condens. Matter 29 465901 (2017);
         "P. Giannozzi et al., J. Chem. Phys. 152 154105 (2020);
          URL http://www.quantum-espresso.org", 
     in publications or presentations arising from this work. More details at
     http://www.quantum-espresso.org/quote

     Parallel version (MPI & OpenMP), running on       4 processor cores
     Number of MPI processes:                 1
     Threads/MPI process:                     4

     MPI processes distributed on     1 nodes
     64849 MiB available memory on the printing compute node when the environment starts

     Waiting for input...
     Reading input from standard input

     Current dimensions of program PWSCF are:
     Max number of different atomic species (ntypx) = 10
     Max number of k-points (npk) =  40000
     Max angular momentum in pseudopotentials (lmaxx) =  4

     Subspace diagonalization in iterative solution of the eigenvalue problem:
     a serial algorithm will be used


     G-vector sticks info
     --------------------
     sticks:   dense  smooth     PW     G-vecs:    dense   smooth      PW
     Sum         713     713    219                12113    12113    2093

     Using Slab Decomposition



     bravais-lattice index     =            3
     lattice parameter (alat)  =       7.9910  a.u.
     unit-cell volume          =     255.1370 (a.u.)^3
     number of atoms/cell      =            1
     number of atomic types    =            1
     number of electrons       =         9.00
     number of Kohn-Sham states=           10
     kinetic-energy cutoff     =      50.0000  Ry
     charge density cutoff     =     200.0000  Ry
     scf convergence threshold =      1.0E-08
     mixing beta               =       0.7000
     number of iterations used =            8  plain     mixing
     Exchange-correlation= PBE
                           (   1   4   3   4   0   0   0)

     celldm(1)=   7.991000  celldm(2)=   7.991000  celldm(3)=   7.991000
     celldm(4)=   0.000000  celldm(5)=   0.000000  celldm(6)=   0.000000

     crystal axes: (cart. coord. in units of alat)
               a(1) = (   0.500000   0.500000   0.500000 )  
               a(2) = (  -0.500000   0.500000   0.500000 )  
               a(3) = (  -0.500000  -0.500000   0.500000 )  

     reciprocal axes: (cart. coord. in units 2 pi/alat)
               b(1) = (  1.000000  0.000000  1.000000 )  
               b(2) = ( -1.000000  1.000000  0.000000 )  
               b(3) = (  0.000000 -1.000000  1.000000 )  


     PseudoPot. # 1 for Na read from file:
     /scratch/gsesti/pseudo/Na_ONCV_PBE-1.2.upf
     MD5 check sum: 425b17ce8ead78efa4860b7b3310c7e3
     Pseudo is Norm-conserving, Zval =  9.0
     Generated using ONCVPSP code by D. R. Hamann
     Using radial grid of  602 points,  4 beta functions with: 
                l(1) =   0
                l(2) =   0
                l(3) =   1
                l(4) =   1

     atomic species   valence    mass     pseudopotential
     Na                9.00    22.98980     Na( 1.00)

     48 Sym. Ops., with inversion, found



   Cartesian axes

     site n.     atom                  positions (alat units)
         1        Na     tau(   1) = (   0.0000000   0.0000000   0.0000000  )

     number of k points=    16  Fermi-Dirac smearing, width (Ry)=  0.0050
                       cart. coord. in units 2pi/alat
        k(    1) = (   0.0000000   0.0000000   0.0000000), wk =   0.0092593
        k(    2) = (   0.0000000  -0.1666667   0.1666667), wk =   0.1111111
        k(    3) = (   0.0000000  -0.3333333   0.3333333), wk =   0.1111111
        k(    4) = (   0.0000000   0.5000000  -0.5000000), wk =   0.0555556
        k(    5) = (  -0.1666667  -0.1666667   0.3333333), wk =   0.2222222
        k(    6) = (  -0.1666667   0.6666667  -0.5000000), wk =   0.4444444
        k(    7) = (  -0.3333333   0.6666667  -0.3333333), wk =   0.0740741
        k(    8) = (   0.0000000   0.0000000   0.3333333), wk =   0.0555556
        k(    9) = (   0.0000000  -0.1666667   0.5000000), wk =   0.2222222
        k(   10) = (   0.0000000   0.6666667  -0.3333333), wk =   0.1111111
        k(   11) = (  -0.1666667   0.8333333  -0.3333333), wk =   0.2222222
        k(   12) = (   0.6666667  -0.6666667   0.3333333), wk =   0.0740741
        k(   13) = (   0.5000000  -0.5000000   0.3333333), wk =   0.1111111
        k(   14) = (   0.0000000   0.0000000   0.6666667), wk =   0.0555556
        k(   15) = (   0.0000000   0.8333333  -0.1666667), wk =   0.1111111
        k(   16) = (   0.0000000   0.0000000  -1.0000000), wk =   0.0092593

     Dense  grid:    12113 G-vectors     FFT dimensions: (  32,  32,  32)

     Estimated max dynamical RAM per process >      12.70 MB

     Initial potential from superposition of free atoms

     starting charge       8.8633, renormalised to       9.0000
     Starting wfcs are random

     total cpu time spent up to now is        0.7 secs

     per-process dynamical memory:    17.8 Mb

     Self-consistent Calculation

     iteration #  1     ecut=    50.00 Ry     beta= 0.70
     Davidson diagonalization with overlap
     c_bands:  1 eigenvalues not converged
     ethr =  5.00E-06,  avg # of iterations = 13.9

     total cpu time spent up to now is        1.7 secs

     total energy              =     -85.19052402 Ry
     estimated scf accuracy    <       0.02121761 Ry

     iteration #  2     ecut=    50.00 Ry     beta= 0.70
     Davidson diagonalization with overlap
     ethr =  2.36E-04,  avg # of iterations =  2.0

     total cpu time spent up to now is        2.0 secs

     total energy              =     -85.19499762 Ry
     estimated scf accuracy    <       0.00065402 Ry

     iteration #  3     ecut=    50.00 Ry     beta= 0.70
     Davidson diagonalization with overlap
     ethr =  7.27E-06,  avg # of iterations =  2.2

     total cpu time spent up to now is        2.3 secs

     total energy              =     -85.19501248 Ry
     estimated scf accuracy    <       0.00004293 Ry

     iteration #  4     ecut=    50.00 Ry     beta= 0.70
     Davidson diagonalization with overlap
     ethr =  4.77E-07,  avg # of iterations =  2.3

     total cpu time spent up to now is        2.5 secs

     total energy              =     -85.19501477 Ry
     estimated scf accuracy    <       0.00000069 Ry

     iteration #  5     ecut=    50.00 Ry     beta= 0.70
     Davidson diagonalization with overlap
     ethr =  7.70E-09,  avg # of iterations =  4.0

     total cpu time spent up to now is        2.9 secs

     total energy              =     -85.19501494 Ry
     estimated scf accuracy    <       0.00000006 Ry

     iteration #  6     ecut=    50.00 Ry     beta= 0.70
     Davidson diagonalization with overlap
     ethr =  7.16E-10,  avg # of iterations =  3.2

     total cpu time spent up to now is        3.2 secs

     End of self-consistent calculation

          k = 0.0000 0.0000 0.0000 (  1505 PWs)   bands (ev):

   -51.1720 -23.1118 -23.1118 -23.1118  -1.3974  13.5009  13.5009  13.5009
    14.4675  14.4675

          k = 0.0000-0.1667 0.1667 (  1511 PWs)   bands (ev):

   -51.1717 -23.1201 -23.1146 -23.1118  -0.9172   9.8172  11.8086  12.2899
    12.6449  13.4958

          k = 0.0000-0.3333 0.3333 (  1511 PWs)   bands (ev):

   -51.1708 -23.1366 -23.1203 -23.1118   0.4987   5.9440  10.4518  11.2202
    11.3960  12.4995

          k = 0.0000 0.5000-0.5000 (  1524 PWs)   bands (ev):

   -51.1706 -23.1448 -23.1231 -23.1117   2.5849   3.0385   9.9933  10.8580
    10.9808  12.0791

          k =-0.1667-0.1667 0.3333 (  1531 PWs)   bands (ev):

   -51.1714 -23.1314 -23.1181 -23.1137   0.0308   7.8035   8.4821  10.9871
    13.1094  13.9925

          k =-0.1667 0.6667-0.5000 (  1533 PWs)   bands (ev):

   -51.1707 -23.1406 -23.1246 -23.1144   1.8754   4.6099   7.3373  10.1505
    12.6430  14.9857

          k =-0.3333 0.6667-0.3333 (  1538 PWs)   bands (ev):

   -51.1706 -23.1345 -23.1345 -23.1160   3.8776   3.8776   4.8224   9.7114
    14.4551  14.4551

          k = 0.0000 0.0000 0.3333 (  1513 PWs)   bands (ev):

   -51.1713 -23.1216 -23.1175 -23.1175  -0.4411   9.9626   9.9626  10.0626
    11.8549  14.4252

          k = 0.0000-0.1667 0.5000 (  1512 PWs)   bands (ev):

   -51.1704 -23.1352 -23.1234 -23.1181   0.9629   6.3549   8.7133   9.5268
    12.0315  13.8125

          k = 0.0000 0.6667-0.3333 (  1522 PWs)   bands (ev):

   -51.1702 -23.1426 -23.1263 -23.1178   3.0151   3.5043   8.2960   9.1280
    13.4272  13.5760

          k =-0.1667 0.8333-0.3333 (  1522 PWs)   bands (ev):

   -51.1700 -23.1385 -23.1312 -23.1204   2.7720   5.1815   5.9422  10.4711
    11.3897  13.3556

          k = 0.6667-0.6667 0.3333 (  1520 PWs)   bands (ev):

   -51.1707 -23.1378 -23.1191 -23.1191   1.4217   6.4851   6.4851   7.8734
    16.7132  16.7132

          k = 0.5000-0.5000 0.3333 (  1526 PWs)   bands (ev):

   -51.1706 -23.1362 -23.1266 -23.1197   3.4449   3.9123   6.0471   7.1512
    16.7238  16.9911

          k = 0.0000 0.0000 0.6667 (  1525 PWs)   bands (ev):

   -51.1699 -23.1335 -23.1296 -23.1296   2.3321   7.2697   7.4817   7.4817
     9.1451  13.3913

          k = 0.0000 0.8333-0.1667 (  1532 PWs)   bands (ev):

   -51.1697 -23.1381 -23.1326 -23.1299   4.3117   4.8160   7.0715   7.6197
     9.5916  11.1856

          k = 0.0000 0.0000-1.0000 (  1464 PWs)   bands (ev):

   -51.1681 -23.1358 -23.1358 -23.1358   6.3380   6.3380   6.6639   6.6639
     6.6639   9.3808

     the Fermi energy is     1.8583 ev

!    total energy              =     -85.19501495 Ry
     estimated scf accuracy    <          5.0E-11 Ry
     smearing contrib. (-TS)   =      -0.00152970 Ry
     internal energy E=F+TS    =     -85.19348525 Ry

     The total energy is F=E-TS. E is the sum of the following terms:
     one-electron contribution =     -70.14767075 Ry
     hartree contribution      =      34.36940868 Ry
     xc contribution           =     -12.52648459 Ry
     ewald contribution        =     -36.88873860 Ry

     convergence has been achieved in   6 iterations

     Forces acting on atoms (cartesian axes, Ry/au):

     atom    1 type  1   force =     0.00000000    0.00000000    0.00000000

     Total force =     0.000000     Total SCF correction =     0.000000


     Computing stress (Cartesian axis) and pressure

          total   stress  (Ry/bohr**3)                   (kbar)     P=       -2.95
  -0.00002005  -0.00000000   0.00000000           -2.95       -0.00        0.00
  -0.00000000  -0.00002005  -0.00000000           -0.00       -2.95       -0.00
   0.00000000  -0.00000000  -0.00002005            0.00       -0.00       -2.95


     Writing all to output data dir ./Na.save/ :
     XML data file, charge density, pseudopotentials, collected wavefunctions

     init_run     :      1.52s CPU      0.64s WALL (       1 calls)
     electrons    :      9.88s CPU      2.52s WALL (       1 calls)
     forces       :      0.05s CPU      0.01s WALL (       1 calls)
     stress       :      0.13s CPU      0.08s WALL (       1 calls)

     Called by init_run:
     wfcinit      :      0.96s CPU      0.31s WALL (       1 calls)
     potinit      :      0.06s CPU      0.02s WALL (       1 calls)
     hinit0       :      0.48s CPU      0.30s WALL (       1 calls)

     Called by electrons:
     c_bands      :      8.71s CPU      2.22s WALL (       6 calls)
     sum_band     :      1.01s CPU      0.26s WALL (       6 calls)
     v_of_rho     :      0.15s CPU      0.04s WALL (       7 calls)
     mix_rho      :      0.03s CPU      0.01s WALL (       6 calls)

     Called by c_bands:
     init_us_2    :      0.24s CPU      0.06s WALL (     240 calls)
     cegterg      :      8.47s CPU      2.16s WALL (      96 calls)

     Called by *egterg:
     cdiaghg      :      0.60s CPU      0.14s WALL (     539 calls)
     h_psi        :      7.59s CPU      2.01s WALL (     555 calls)
     g_psi        :      0.10s CPU      0.02s WALL (     443 calls)

     Called by h_psi:
     h_psi:calbec :      0.14s CPU      0.04s WALL (     555 calls)
     vloc_psi     :      7.26s CPU      1.92s WALL (     555 calls)
                                        0.00s GPU  (     555 calls)
     add_vuspsi   :      0.13s CPU      0.04s WALL (     555 calls)

     General routines
     calbec       :      0.17s CPU      0.06s WALL (     827 calls)
     fft          :      0.51s CPU      0.29s WALL (      77 calls)
     ffts         :      0.00s CPU      0.00s WALL (       6 calls)
     fftw         :      6.15s CPU      1.64s WALL (    8894 calls)

     Parallel routines

     PWSCF        :     11.61s CPU      3.28s WALL


   This run was terminated on:   9:20:15   9Apr2026            

=------------------------------------------------------------------------------=
   JOB DONE.
=------------------------------------------------------------------------------=
